LAMMPS data file via write_data, version 29 Oct 2020, timestep = 0

13824 atoms
4 atom types

-0.5533902330182564 66.40682796219076 xlo xhi
-0.5217413152128171 62.60895782553804 ylo yhi
-0.4518412331782038 54.220947981384455 zlo zhi

Masses

1 180.947
2 92.90600000000001
3 95.94
4 183.84

Atoms # atomic

1 2 0.9223170550304278 14.347886168352467 2.259206165891019 0 0 0
2 1 0.9223170550304269 14.347886168352467 6.777618497673057 0 0 0
3 1 0.9223170550304278 14.347886168352467 11.296030829455095 0 0 0
4 3 0.9223170550304269 10.43482630425634 0.0 0 0 0
5 3 0.9223170550304269 10.43482630425634 4.518412331782038 0 0 0
6 1 0.0 11.739179592288382 2.259206165891019 0 0 0
7 4 2.7669511650912817 11.739179592288384 2.259206165891019 0 0 0
8 3 1.8446341100608548 13.043532880320424 0.0 0 0 0
9 4 4.6115852751521365 13.043532880320425 0.0 0 0 0
10 3 0.9223170550304269 10.43482630425634 9.036824663564076 0 0 0
11 3 0.0 11.739179592288382 6.777618497673057 0 0 0
12 3 2.766951165091281 11.739179592288384 6.777618497673057 0 0 0
13 4 1.8446341100608548 13.043532880320424 4.518412331782038 0 0 0
14 4 4.611585275152135 13.043532880320424 4.518412331782038 0 0 0
15 3 3.6892682201217095 14.347886168352467 2.259206165891019 0 0 0
16 4 6.45621938521299 14.347886168352467 2.259206165891019 0 0 0
17 2 0.0 11.739179592288382 11.296030829455095 0 0 0
18 1 2.7669511650912817 11.739179592288384 11.296030829455095 0 0 0
19 4 1.8446341100608548 13.043532880320424 9.036824663564076 0 0 0
20 1 4.6115852751521365 13.043532880320424 9.036824663564076 0 0 0
21 1 3.6892682201217095 14.347886168352467 6.777618497673057 0 0 0
22 2 6.45621938521299 14.347886168352467 6.777618497673057 0 0 0
23 1 3.6892682201217095 14.347886168352467 11.296030829455095 0 0 0
24 2 6.45621938521299 14.347886168352467 11.296030829455095 0 0 0
25 1 0.9223170550304274 6.521766440160212 2.259206165891019 0 0 0
26 3 0.0 7.826119728192255 0.0 0 0 0
27 3 2.7669511650912817 7.826119728192254 0.0 0 0 0
28 3 0.9223170550304274 6.521766440160212 6.777618497673057 0 0 0
29 3 0.0 7.826119728192255 4.518412331782038 0 0 0
30 4 2.7669511650912817 7.826119728192255 4.518412331782038 0 0 0
31 3 1.8446341100608543 9.130473016224297 2.259206165891019 0 0 0
32 1 4.6115852751521365 9.130473016224297 2.259206165891019 0 0 0
33 4 3.689268220121709 10.43482630425634 0.0 0 0 0
34 1 6.456219385212991 10.43482630425634 0.0 0 0 0
35 3 0.9223170550304269 6.521766440160212 11.296030829455095 0 0 0
36 4 -4.440892098500626e-16 7.826119728192255 9.036824663564076 0 0 0
37 2 2.7669511650912817 7.826119728192254 9.036824663564076 0 0 0
38 4 1.8446341100608543 9.130473016224297 6.777618497673057 0 0 0
39 3 4.611585275152136 9.130473016224297 6.777618497673057 0 0 0
40 4 3.689268220121709 10.43482630425634 4.518412331782038 0 0 0
41 3 6.456219385212989 10.434826304256339 4.518412331782038 0 0 0
42 1 5.533902330182563 11.739179592288382 2.259206165891019 0 0 0
43 1 7.378536440243417 13.043532880320424 0.0 0 0 0
44 2 1.8446341100608543 9.130473016224297 11.296030829455095 0 0 0
45 3 4.6115852751521365 9.130473016224297 11.296030829455095 0 0 0
46 2 3.689268220121709 10.43482630425634 9.036824663564076 0 0 0
47 2 6.456219385212991 10.434826304256339 9.036824663564076 0 0 0
48 4 5.533902330182563 11.739179592288384 6.777618497673057 0 0 0
49 4 7.378536440243417 13.043532880320425 4.518412331782038 0 0 0
50 2 5.533902330182563 11.739179592288384 11.296030829455095 0 0 0
51 3 7.378536440243417 13.043532880320425 9.036824663564076 0 0 0
52 1 0.9223170550304273 2.608706576064085 0.0 0 0 0
53 1 0.922317055030427 2.608706576064085 4.518412331782038 0 0 0
54 1 0.0 3.9130598640961276 2.259206165891019 0 0 0
55 3 2.7669511650912817 3.9130598640961276 2.259206165891019 0 0 0
56 4 1.8446341100608545 5.21741315212817 0.0 0 0 0
57 4 4.6115852751521365 5.21741315212817 0.0 0 0 0
58 1 0.9223170550304275 2.608706576064085 9.036824663564076 0 0 0
59 4 0.0 3.9130598640961276 6.777618497673057 0 0 0
60 3 2.7669511650912817 3.9130598640961276 6.777618497673057 0 0 0
61 3 1.8446341100608545 5.21741315212817 4.518412331782038 0 0 0
62 4 4.6115852751521365 5.21741315212817 4.518412331782038 0 0 0
63 1 3.6892682201217086 6.521766440160213 2.259206165891019 0 0 0
64 3 6.456219385212991 6.521766440160213 2.259206165891019 0 0 0
65 4 5.533902330182563 7.826119728192255 0.0 0 0 0
66 4 -2.220446049250313e-16 3.913059864096127 11.296030829455095 0 0 0
67 1 2.7669511650912813 3.9130598640961276 11.296030829455095 0 0 0
68 4 1.844634110060854 5.21741315212817 9.036824663564076 0 0 0
69 4 4.6115852751521365 5.21741315212817 9.036824663564076 0 0 0
70 3 3.6892682201217086 6.521766440160212 6.777618497673057 0 0 0
71 1 6.45621938521299 6.521766440160213 6.777618497673057 0 0 0
72 2 5.533902330182563 7.826119728192255 4.518412331782038 0 0 0
73 4 7.378536440243418 9.130473016224297 2.259206165891019 0 0 0
74 4 3.6892682201217086 6.521766440160213 11.296030829455095 0 0 0
75 2 6.456219385212991 6.521766440160213 11.296030829455095 0 0 0
76 3 5.533902330182563 7.826119728192255 9.036824663564076 0 0 0
77 3 7.378536440243418 9.130473016224297 6.777618497673057 0 0 0
78 3 7.378536440243418 9.130473016224297 11.296030829455095 0 0 0
79 3 0.0 0.0 0.0 0 0 0
80 2 2.7669511650912817 0.0 0.0 0 0 0
81 3 0.0 0.0 4.518412331782038 0 0 0
82 4 2.7669511650912817 -2.220446049250313e-16 4.518412331782038 0 0 0
83 4 1.8446341100608545 1.3043532880320425 2.259206165891019 0 0 0
84 1 4.6115852751521365 1.3043532880320425 2.259206165891019 0 0 0
85 2 3.689268220121709 2.608706576064085 0.0 0 0 0
86 1 6.45621938521299 2.6087065760640846 0.0 0 0 0
87 2 0.0 0.0 9.036824663564076 0 0 0
88 3 2.766951165091282 2.220446049250313e-16 9.036824663564076 0 0 0
89 2 1.8446341100608545 1.3043532880320425 6.777618497673057 0 0 0
90 4 4.6115852751521365 1.3043532880320425 6.777618497673057 0 0 0
91 1 3.689268220121709 2.608706576064085 4.518412331782038 0 0 0
92 3 6.45621938521299 2.608706576064085 4.518412331782038 0 0 0
93 1 5.533902330182563 3.9130598640961276 2.259206165891019 0 0 0
94 1 7.378536440243418 5.21741315212817 0.0 0 0 0
95 4 1.8446341100608543 1.304353288032042 11.296030829455095 0 0 0
96 2 4.611585275152136 1.3043532880320425 11.296030829455095 0 0 0
97 4 3.6892682201217086 2.6087065760640846 9.036824663564076 0 0 0
98 3 6.45621938521299 2.6087065760640846 9.036824663564076 0 0 0
99 4 5.533902330182563 3.913059864096127 6.777618497673057 0 0 0
100 4 7.378536440243418 5.21741315212817 4.518412331782038 0 0 0
101 1 5.533902330182563 3.9130598640961276 11.296030829455095 0 0 0
102 3 7.378536440243418 5.21741315212817 9.036824663564076 0 0 0
103 1 5.533902330182563 0.0 0.0 0 0 0
104 1 5.533902330182563 0.0 4.518412331782038 0 0 0
105 2 7.378536440243418 1.3043532880320425 2.259206165891019 0 0 0
106 3 5.533902330182563 -4.440892098500626e-16 9.036824663564076 0 0 0
107 1 7.378536440243418 1.304353288032042 6.777618497673057 0 0 0
108 1 7.378536440243418 1.3043532880320425 11.296030829455095 0 0 0
109 4 0.9223170550304269 14.347886168352467 15.814443161237133 0 0 0
110 3 0.922317055030426 14.347886168352465 20.33285549301917 0 0 0
111 4 0.9223170550304278 14.347886168352467 24.851267824801212 0 0 0
112 2 0.9223170550304269 10.43482630425634 13.555236995346114 0 0 0
113 4 0.922317055030426 10.434826304256339 18.07364932712815 0 0 0
114 4 0.0 11.739179592288382 15.814443161237133 0 0 0
115 4 2.766951165091281 11.739179592288382 15.814443161237133 0 0 0
116 2 1.8446341100608548 13.043532880320424 13.555236995346114 0 0 0
117 4 4.611585275152135 13.043532880320424 13.555236995346114 0 0 0
118 2 0.922317055030426 10.43482630425634 22.59206165891019 0 0 0
119 1 0.0 11.739179592288382 20.33285549301917 0 0 0
120 1 2.76695116509128 11.73917959228838 20.33285549301917 0 0 0
121 1 1.8446341100608539 13.043532880320424 18.07364932712815 0 0 0
122 3 4.611585275152135 13.043532880320424 18.07364932712815 0 0 0
123 4 3.6892682201217095 14.347886168352467 15.814443161237133 0 0 0
124 1 6.4562193852129885 14.347886168352467 15.814443161237133 0 0 0
125 2 -8.881784197001252e-16 11.73917959228838 24.85126782480121 0 0 0
126 1 2.7669511650912817 11.739179592288384 24.851267824801212 0 0 0
127 3 1.8446341100608539 13.043532880320424 22.59206165891019 0 0 0
128 4 4.611585275152135 13.043532880320424 22.59206165891019 0 0 0
129 1 3.6892682201217077 14.347886168352467 20.33285549301917 0 0 0
130 4 6.45621938521299 14.347886168352467 20.332855493019174 0 0 0
131 3 3.6892682201217095 14.347886168352467 24.85126782480121 0 0 0
132 2 6.45621938521299 14.347886168352467 24.851267824801212 0 0 0
133 3 0.9223170550304269 6.521766440160212 15.814443161237133 0 0 0
134 4 0.0 7.826119728192255 13.555236995346114 0 0 0
135 1 2.7669511650912817 7.826119728192255 13.555236995346114 0 0 0
136 4 0.9223170550304269 6.521766440160212 20.33285549301917 0 0 0
137 1 4.440892098500626e-16 7.826119728192255 18.07364932712815 0 0 0
138 3 2.766951165091281 7.826119728192253 18.07364932712815 0 0 0
139 2 1.8446341100608543 9.130473016224297 15.814443161237133 0 0 0
140 3 4.611585275152136 9.130473016224297 15.814443161237133 0 0 0
141 4 3.689268220121709 10.43482630425634 13.555236995346114 0 0 0
142 4 6.456219385212989 10.434826304256339 13.555236995346114 0 0 0
143 4 0.922317055030426 6.521766440160212 24.85126782480121 0 0 0
144 3 -4.440892098500626e-16 7.826119728192254 22.59206165891019 0 0 0
145 1 2.766951165091281 7.826119728192253 22.59206165891019 0 0 0
146 1 1.8446341100608543 9.130473016224297 20.33285549301917 0 0 0
147 3 4.611585275152135 9.130473016224295 20.33285549301917 0 0 0
148 4 3.689268220121708 10.43482630425634 18.07364932712815 0 0 0
149 1 6.456219385212989 10.434826304256339 18.07364932712815 0 0 0
150 1 5.533902330182563 11.739179592288382 15.814443161237133 0 0 0
151 4 7.378536440243417 13.043532880320424 13.555236995346114 0 0 0
152 2 1.8446341100608534 9.130473016224297 24.85126782480121 0 0 0
153 1 4.6115852751521365 9.130473016224297 24.851267824801212 0 0 0
154 3 3.689268220121708 10.43482630425634 22.59206165891019 0 0 0
155 3 6.456219385212989 10.434826304256339 22.59206165891019 0 0 0
156 1 5.533902330182562 11.739179592288382 20.33285549301917 0 0 0
157 3 7.378536440243417 13.043532880320424 18.07364932712815 0 0 0
158 2 5.533902330182563 11.739179592288384 24.85126782480121 0 0 0
159 1 7.378536440243417 13.043532880320425 22.59206165891019 0 0 0
160 4 0.9223170550304266 2.6087065760640846 13.555236995346114 0 0 0
161 1 0.9223170550304275 2.608706576064085 18.07364932712815 0 0 0
162 1 2.220446049250313e-16 3.913059864096128 15.814443161237133 0 0 0
163 3 2.7669511650912813 3.913059864096127 15.814443161237133 0 0 0
164 2 1.8446341100608545 5.21741315212817 13.555236995346114 0 0 0
165 3 4.6115852751521365 5.21741315212817 13.555236995346114 0 0 0
166 1 0.9223170550304266 2.608706576064084 22.59206165891019 0 0 0
167 4 2.220446049250313e-16 3.9130598640961276 20.33285549301917 0 0 0
168 1 2.7669511650912813 3.9130598640961267 20.33285549301917 0 0 0
169 3 1.844634110060855 5.21741315212817 18.07364932712815 0 0 0
170 2 4.611585275152136 5.217413152128168 18.07364932712815 0 0 0
171 1 3.6892682201217086 6.521766440160213 15.814443161237133 0 0 0
172 1 6.45621938521299 6.521766440160212 15.814443161237133 0 0 0
173 2 5.533902330182563 7.826119728192255 13.555236995346114 0 0 0
174 1 -6.661338147750939e-16 3.9130598640961267 24.85126782480121 0 0 0
175 2 2.7669511650912804 3.9130598640961267 24.85126782480121 0 0 0
176 2 1.844634110060854 5.217413152128169 22.59206165891019 0 0 0
177 1 4.611585275152136 5.217413152128169 22.59206165891019 0 0 0
178 3 3.6892682201217086 6.521766440160212 20.33285549301917 0 0 0
179 2 6.456219385212989 6.521766440160211 20.33285549301917 0 0 0
180 2 5.5339023301825625 7.826119728192254 18.07364932712815 0 0 0
181 1 7.378536440243418 9.130473016224297 15.814443161237133 0 0 0
182 3 3.6892682201217077 6.521766440160212 24.85126782480121 0 0 0
183 3 6.456219385212991 6.521766440160213 24.851267824801212 0 0 0
184 4 5.5339023301825625 7.826119728192255 22.59206165891019 0 0 0
185 2 7.378536440243416 9.130473016224297 20.33285549301917 0 0 0
186 1 7.378536440243418 9.130473016224299 24.85126782480121 0 0 0
187 4 0.0 0.0 13.555236995346114 0 0 0
188 4 2.7669511650912813 -4.440892098500626e-16 13.555236995346114 0 0 0
189 1 0.0 0.0 18.07364932712815 0 0 0
190 2 2.766951165091282 0.0 18.07364932712815 0 0 0
191 4 1.8446341100608548 1.304353288032043 15.814443161237133 0 0 0
192 2 4.611585275152136 1.304353288032042 15.814443161237133 0 0 0
193 1 3.689268220121709 2.608706576064085 13.555236995346114 0 0 0
194 2 6.45621938521299 2.608706576064085 13.555236995346114 0 0 0
195 4 0.0 0.0 22.59206165891019 0 0 0
196 3 2.7669511650912813 -8.881784197001252e-16 22.59206165891019 0 0 0
197 1 1.8446341100608548 1.3043532880320425 20.33285549301917 0 0 0
198 4 4.611585275152136 1.3043532880320416 20.33285549301917 0 0 0
199 3 3.6892682201217095 2.6087065760640855 18.07364932712815 0 0 0
200 3 6.456219385212989 2.6087065760640837 18.07364932712815 0 0 0
201 1 5.533902330182563 3.9130598640961276 15.814443161237133 0 0 0
202 2 7.378536440243418 5.21741315212817 13.555236995346114 0 0 0
203 2 1.8446341100608539 1.3043532880320416 24.85126782480121 0 0 0
204 1 4.611585275152135 1.3043532880320416 24.85126782480121 0 0 0
205 4 3.6892682201217086 2.608706576064084 22.59206165891019 0 0 0
206 1 6.456219385212989 2.608706576064084 22.59206165891019 0 0 0
207 2 5.533902330182563 3.913059864096127 20.33285549301917 0 0 0
208 4 7.378536440243417 5.217413152128169 18.07364932712815 0 0 0
209 3 5.5339023301825625 3.9130598640961267 24.85126782480121 0 0 0
210 3 7.378536440243417 5.21741315212817 22.59206165891019 0 0 0
211 4 5.533902330182563 0.0 13.555236995346114 0 0 0
212 3 5.533902330182564 4.440892098500626e-16 18.07364932712815 0 0 0
213 2 7.378536440243418 1.3043532880320425 15.814443161237133 0 0 0
214 1 5.533902330182563 -8.881784197001252e-16 22.59206165891019 0 0 0
215 3 7.378536440243418 1.304353288032042 20.33285549301917 0 0 0
216 1 7.378536440243417 1.3043532880320416 24.85126782480121 0 0 0
217 4 0.9223170550304269 14.347886168352467 29.36968015658325 0 0 0
218 1 0.9223170550304269 14.347886168352467 33.88809248836529 0 0 0
219 2 0.9223170550304287 14.347886168352469 38.406504820147326 0 0 0
220 4 0.9223170550304269 10.43482630425634 27.110473990692228 0 0 0
221 4 0.9223170550304269 10.43482630425634 31.628886322474266 0 0 0
222 2 0.0 11.739179592288382 29.369680156583247 0 0 0
223 3 2.766951165091281 11.739179592288382 29.36968015658325 0 0 0
224 2 1.8446341100608548 13.043532880320424 27.110473990692228 0 0 0
225 3 4.611585275152135 13.043532880320424 27.110473990692228 0 0 0
226 1 0.9223170550304269 10.43482630425634 36.1472986542563 0 0 0
227 1 0.0 11.739179592288382 33.88809248836529 0 0 0
228 2 2.766951165091281 11.739179592288384 33.88809248836529 0 0 0
229 3 1.8446341100608539 13.043532880320424 31.628886322474266 0 0 0
230 4 4.611585275152135 13.043532880320425 31.628886322474266 0 0 0
231 4 3.6892682201217077 14.347886168352467 29.369680156583247 0 0 0
232 1 6.45621938521299 14.347886168352467 29.36968015658325 0 0 0
233 1 1.7763568394002505e-15 11.739179592288384 38.40650482014732 0 0 0
234 3 2.7669511650912826 11.739179592288384 38.406504820147326 0 0 0
235 2 1.8446341100608556 13.043532880320425 36.1472986542563 0 0 0
236 2 4.6115852751521365 13.043532880320427 36.1472986542563 0 0 0
237 3 3.6892682201217095 14.347886168352467 33.88809248836529 0 0 0
238 2 6.45621938521299 14.347886168352469 33.88809248836529 0 0 0
239 1 3.6892682201217077 14.347886168352465 38.40650482014732 0 0 0
240 2 6.456219385212992 14.347886168352469 38.406504820147326 0 0 0
241 2 0.9223170550304278 6.521766440160214 29.36968015658325 0 0 0
242 4 -1.3322676295501878e-15 7.826119728192254 27.110473990692228 0 0 0
243 1 2.7669511650912817 7.826119728192255 27.110473990692228 0 0 0
244 3 0.9223170550304278 6.521766440160212 33.88809248836529 0 0 0
245 1 4.440892098500626e-16 7.826119728192256 31.628886322474266 0 0 0
246 3 2.7669511650912817 7.826119728192255 31.628886322474266 0 0 0
247 3 1.8446341100608543 9.130473016224297 29.369680156583247 0 0 0
248 1 4.611585275152136 9.130473016224297 29.36968015658325 0 0 0
249 1 3.689268220121709 10.43482630425634 27.110473990692228 0 0 0
250 1 6.456219385212989 10.434826304256339 27.110473990692228 0 0 0
251 4 0.922317055030426 6.521766440160212 38.406504820147326 0 0 0
252 2 4.440892098500626e-16 7.826119728192255 36.1472986542563 0 0 0
253 4 2.7669511650912817 7.826119728192255 36.1472986542563 0 0 0
254 2 1.8446341100608543 9.130473016224297 33.88809248836529 0 0 0
255 4 4.611585275152136 9.130473016224299 33.88809248836529 0 0 0
256 4 3.689268220121708 10.43482630425634 31.628886322474266 0 0 0
257 2 6.456219385212989 10.43482630425634 31.628886322474266 0 0 0
258 3 5.533902330182562 11.739179592288382 29.369680156583247 0 0 0
259 2 7.378536440243417 13.043532880320425 27.110473990692228 0 0 0
260 2 1.844634110060856 9.130473016224299 38.40650482014732 0 0 0
261 3 4.611585275152137 9.130473016224299 38.406504820147326 0 0 0
262 1 3.68926822012171 10.43482630425634 36.1472986542563 0 0 0
263 2 6.456219385212991 10.434826304256342 36.1472986542563 0 0 0
264 1 5.533902330182563 11.739179592288384 33.88809248836529 0 0 0
265 4 7.378536440243417 13.043532880320425 31.628886322474266 0 0 0
266 4 5.533902330182562 11.73917959228838 38.40650482014732 0 0 0
267 2 7.3785364402434155 13.043532880320424 36.1472986542563 0 0 0
268 3 0.9223170550304266 2.608706576064085 27.110473990692228 0 0 0
269 2 0.9223170550304284 2.608706576064086 31.628886322474266 0 0 0
270 2 -6.661338147750939e-16 3.9130598640961276 29.369680156583247 0 0 0
271 3 2.766951165091282 3.9130598640961285 29.36968015658325 0 0 0
272 2 1.8446341100608532 5.217413152128169 27.110473990692228 0 0 0
273 3 4.6115852751521365 5.21741315212817 27.110473990692228 0 0 0
274 4 0.9223170550304266 2.608706576064084 36.1472986542563 0 0 0
275 2 1.1102230246251565e-15 3.9130598640961285 33.88809248836529 0 0 0
276 2 2.766951165091282 3.9130598640961276 33.88809248836529 0 0 0
277 3 1.844634110060855 5.217413152128171 31.628886322474266 0 0 0
278 1 4.6115852751521365 5.21741315212817 31.628886322474266 0 0 0
279 2 3.6892682201217086 6.521766440160213 29.369680156583247 0 0 0
280 3 6.45621938521299 6.521766440160212 29.36968015658325 0 0 0
281 2 5.533902330182563 7.826119728192255 27.110473990692228 0 0 0
282 2 -6.661338147750939e-16 3.9130598640961267 38.40650482014732 0 0 0
283 3 2.7669511650912804 3.9130598640961276 38.406504820147326 0 0 0
284 4 1.844634110060855 5.21741315212817 36.1472986542563 0 0 0
285 2 4.6115852751521365 5.217413152128171 36.1472986542563 0 0 0
286 1 3.6892682201217086 6.521766440160213 33.88809248836529 0 0 0
287 1 6.45621938521299 6.521766440160214 33.88809248836529 0 0 0
288 4 5.5339023301825625 7.826119728192254 31.628886322474266 0 0 0
289 2 7.378536440243416 9.130473016224297 29.369680156583247 0 0 0
290 4 3.6892682201217104 6.521766440160214 38.40650482014732 0 0 0
291 3 6.456219385212992 6.5217664401602145 38.406504820147326 0 0 0
292 1 5.533902330182564 7.826119728192256 36.1472986542563 0 0 0
293 4 7.378536440243418 9.130473016224297 33.88809248836529 0 0 0
294 3 7.378536440243416 9.130473016224297 38.40650482014732 0 0 0
295 1 0.0 0.0 27.110473990692228 0 0 0
296 2 2.7669511650912813 0.0 27.110473990692228 0 0 0
297 4 0.0 0.0 31.628886322474266 0 0 0
298 2 2.766951165091283 8.881784197001252e-16 31.628886322474266 0 0 0
299 1 1.8446341100608539 1.3043532880320425 29.369680156583247 0 0 0
300 1 4.6115852751521365 1.3043532880320434 29.36968015658325 0 0 0
301 4 3.6892682201217077 2.608706576064084 27.110473990692228 0 0 0
302 3 6.45621938521299 2.608706576064085 27.110473990692228 0 0 0
303 1 0.0 0.0 36.1472986542563 0 0 0
304 1 2.7669511650912813 -8.881784197001252e-16 36.1472986542563 0 0 0
305 1 1.8446341100608556 1.3043532880320434 33.88809248836529 0 0 0
306 1 4.6115852751521365 1.3043532880320425 33.88809248836529 0 0 0
307 1 3.6892682201217095 2.608706576064086 31.628886322474266 0 0 0
308 1 6.45621938521299 2.608706576064085 31.628886322474266 0 0 0
309 3 5.533902330182563 3.9130598640961276 29.369680156583247 0 0 0
310 3 7.378536440243418 5.21741315212817 27.110473990692228 0 0 0
311 2 1.8446341100608539 1.3043532880320416 38.40650482014732 0 0 0
312 3 4.611585275152135 1.3043532880320425 38.406504820147326 0 0 0
313 3 3.6892682201217095 2.608706576064085 36.1472986542563 0 0 0
314 2 6.45621938521299 2.608706576064086 36.1472986542563 0 0 0
315 1 5.533902330182563 3.9130598640961276 33.88809248836529 0 0 0
316 4 7.378536440243417 5.217413152128169 31.628886322474266 0 0 0
317 2 5.533902330182565 3.9130598640961285 38.40650482014732 0 0 0
318 2 7.378536440243419 5.217413152128171 36.1472986542563 0 0 0
319 3 5.5339023301825625 -8.881784197001252e-16 27.110473990692228 0 0 0
320 2 5.533902330182564 8.881784197001252e-16 31.628886322474266 0 0 0
321 4 7.378536440243418 1.3043532880320425 29.369680156583247 0 0 0
322 2 5.533902330182564 0.0 36.1472986542563 0 0 0
323 4 7.378536440243418 1.3043532880320425 33.88809248836529 0 0 0
324 1 7.37853644024342 1.3043532880320434 38.40650482014732 0 0 0
325 4 0.9223170550304287 14.347886168352467 42.924917151929364 0 0 0
326 2 0.9223170550304305 14.347886168352467 47.4433294837114 0 0 0
327 2 0.9223170550304287 14.347886168352467 51.96174181549344 0 0 0
328 2 0.9223170550304269 10.43482630425634 40.66571098603835 0 0 0
329 4 0.9223170550304287 10.43482630425634 45.18412331782038 0 0 0
330 2 -1.7763568394002505e-15 11.73917959228838 42.924917151929364 0 0 0
331 2 2.7669511650912826 11.739179592288384 42.924917151929364 0 0 0
332 1 1.8446341100608539 13.043532880320424 40.66571098603834 0 0 0
333 1 4.611585275152138 13.043532880320427 40.66571098603834 0 0 0
334 1 0.9223170550304305 10.43482630425634 49.702535649602424 0 0 0
335 2 0.0 11.73917959228838 47.443329483711395 0 0 0
336 2 2.7669511650912844 11.739179592288384 47.4433294837114 0 0 0
337 1 1.8446341100608539 13.043532880320424 45.18412331782038 0 0 0
338 2 4.611585275152138 13.043532880320424 45.18412331782038 0 0 0
339 4 3.6892682201217095 14.347886168352467 42.924917151929364 0 0 0
340 2 6.456219385212994 14.347886168352467 42.924917151929364 0 0 0
341 4 -3.552713678800501e-15 11.73917959228838 51.96174181549344 0 0 0
342 1 2.7669511650912826 11.739179592288384 51.96174181549344 0 0 0
343 3 1.844634110060852 13.043532880320424 49.70253564960242 0 0 0
344 4 4.6115852751521365 13.043532880320427 49.702535649602424 0 0 0
345 3 3.689268220121706 14.347886168352463 47.443329483711395 0 0 0
346 2 6.45621938521299 14.347886168352467 47.4433294837114 0 0 0
347 3 3.6892682201217077 14.347886168352467 51.96174181549344 0 0 0
348 2 6.456219385212992 14.34788616835247 51.96174181549344 0 0 0
349 4 0.9223170550304278 6.521766440160214 42.924917151929364 0 0 0
350 3 4.440892098500626e-16 7.826119728192255 40.66571098603834 0 0 0
351 4 2.7669511650912817 7.826119728192255 40.66571098603835 0 0 0
352 3 0.9223170550304296 6.521766440160212 47.4433294837114 0 0 0
353 2 -1.3322676295501878e-15 7.826119728192253 45.18412331782038 0 0 0
354 3 2.7669511650912835 7.826119728192255 45.18412331782038 0 0 0
355 3 1.8446341100608525 9.130473016224295 42.924917151929364 0 0 0
356 3 4.611585275152137 9.130473016224297 42.924917151929364 0 0 0
357 4 3.689268220121708 10.434826304256339 40.66571098603834 0 0 0
358 2 6.456219385212993 10.43482630425634 40.66571098603834 0 0 0
359 3 0.9223170550304296 6.52176644016021 51.96174181549344 0 0 0
360 1 -1.3322676295501878e-15 7.826119728192253 49.70253564960242 0 0 0
361 2 2.7669511650912852 7.826119728192253 49.702535649602424 0 0 0
362 4 1.8446341100608543 9.130473016224297 47.443329483711395 0 0 0
363 1 4.611585275152139 9.130473016224297 47.4433294837114 0 0 0
364 1 3.689268220121708 10.434826304256339 45.18412331782038 0 0 0
365 3 6.456219385212993 10.434826304256339 45.18412331782038 0 0 0
366 3 5.533902330182563 11.739179592288382 42.924917151929364 0 0 0
367 3 7.378536440243417 13.043532880320424 40.66571098603834 0 0 0
368 2 1.8446341100608508 9.130473016224295 51.96174181549344 0 0 0
369 4 4.611585275152137 9.130473016224297 51.96174181549344 0 0 0
370 4 3.6892682201217064 10.434826304256339 49.70253564960242 0 0 0
371 4 6.456219385212991 10.43482630425634 49.702535649602424 0 0 0
372 2 5.53390233018256 11.73917959228838 47.443329483711395 0 0 0
373 2 7.3785364402434155 13.043532880320424 45.18412331782038 0 0 0
374 1 5.533902330182562 11.739179592288382 51.96174181549344 0 0 0
375 1 7.3785364402434155 13.043532880320424 49.70253564960242 0 0 0
376 3 0.9223170550304266 2.608706576064086 40.66571098603835 0 0 0
377 1 0.9223170550304284 2.608706576064086 45.18412331782038 0 0 0
378 3 1.1102230246251565e-15 3.9130598640961285 42.924917151929364 0 0 0
379 1 2.766951165091282 3.9130598640961294 42.924917151929364 0 0 0
380 4 1.844634110060855 5.21741315212817 40.66571098603834 0 0 0
381 1 4.6115852751521365 5.217413152128171 40.66571098603835 0 0 0
382 1 0.9223170550304284 2.608706576064084 49.702535649602424 0 0 0
383 1 -2.4424906541753444e-15 3.913059864096125 47.443329483711395 0 0 0
384 1 2.766951165091284 3.9130598640961276 47.4433294837114 0 0 0
385 1 1.8446341100608532 5.217413152128168 45.18412331782038 0 0 0
386 3 4.611585275152138 5.217413152128171 45.18412331782038 0 0 0
387 3 3.689268220121707 6.52176644016021 42.924917151929364 0 0 0
388 2 6.456219385212992 6.521766440160213 42.924917151929364 0 0 0
389 3 5.5339023301825625 7.826119728192253 40.66571098603834 0 0 0
390 4 1.1102230246251565e-15 3.9130598640961285 51.96174181549344 0 0 0
391 3 2.766951165091284 3.913059864096126 51.96174181549344 0 0 0
392 3 1.8446341100608532 5.217413152128168 49.70253564960242 0 0 0
393 2 4.61158527515214 5.217413152128169 49.702535649602424 0 0 0
394 1 3.6892682201217086 6.521766440160212 47.443329483711395 0 0 0
395 4 6.456219385212994 6.521766440160213 47.4433294837114 0 0 0
396 2 5.5339023301825625 7.826119728192253 45.18412331782038 0 0 0
397 2 7.378536440243418 9.130473016224297 42.924917151929364 0 0 0
398 1 3.689268220121705 6.52176644016021 51.96174181549344 0 0 0
399 3 6.456219385212992 6.521766440160213 51.96174181549344 0 0 0
400 1 5.533902330182561 7.826119728192253 49.70253564960242 0 0 0
401 2 7.378536440243415 9.130473016224295 47.443329483711395 0 0 0
402 2 7.378536440243416 9.130473016224297 51.96174181549344 0 0 0
403 1 0.0 0.0 40.66571098603834 0 0 0
404 4 2.7669511650912813 8.881784197001252e-16 40.66571098603835 0 0 0
405 1 0.0 0.0 45.18412331782038 0 0 0
406 2 2.766951165091283 8.881784197001252e-16 45.18412331782038 0 0 0
407 2 1.8446341100608556 1.3043532880320434 42.924917151929364 0 0 0
408 1 4.6115852751521365 1.3043532880320443 42.924917151929364 0 0 0
409 2 3.6892682201217095 2.608706576064085 40.66571098603834 0 0 0
410 4 6.45621938521299 2.608706576064086 40.66571098603835 0 0 0
411 2 0.0 0.0 49.70253564960242 0 0 0
412 3 2.766951165091283 -8.881784197001252e-16 49.702535649602424 0 0 0
413 1 1.844634110060852 1.3043532880320399 47.443329483711395 0 0 0
414 3 4.611585275152138 1.3043532880320425 47.4433294837114 0 0 0
415 1 3.6892682201217077 2.6087065760640833 45.18412331782038 0 0 0
416 2 6.456219385212992 2.608706576064086 45.18412331782038 0 0 0
417 4 5.533902330182562 3.913059864096125 42.924917151929364 0 0 0
418 2 7.378536440243417 5.217413152128168 40.66571098603834 0 0 0
419 1 1.8446341100608556 1.3043532880320434 51.96174181549344 0 0 0
420 3 4.611585275152138 1.3043532880320408 51.96174181549344 0 0 0
421 2 3.6892682201217077 2.6087065760640833 49.70253564960242 0 0 0
422 4 6.456219385212994 2.608706576064084 49.702535649602424 0 0 0
423 2 5.533902330182563 3.9130598640961267 47.443329483711395 0 0 0
424 1 7.378536440243417 5.217413152128168 45.18412331782038 0 0 0
425 2 5.53390233018256 3.913059864096125 51.96174181549344 0 0 0
426 2 7.3785364402434155 5.217413152128168 49.70253564960242 0 0 0
427 4 5.533902330182564 0.0 40.66571098603834 0 0 0
428 1 5.5339023301825625 -1.7763568394002505e-15 45.18412331782038 0 0 0
429 4 7.378536440243416 1.3043532880320399 42.924917151929364 0 0 0
430 3 5.5339023301825625 -1.7763568394002505e-15 49.70253564960242 0 0 0
431 4 7.378536440243418 1.3043532880320416 47.443329483711395 0 0 0
432 3 7.378536440243415 1.3043532880320399 51.96174181549344 0 0 0
433 3 0.922317055030426 30.000125624736977 2.259206165891019 0 0 0
434 3 0.922317055030426 30.000125624736974 6.777618497673057 0 0 0
435 4 0.922317055030426 30.000125624736974 11.296030829455095 0 0 0
436 2 0.9223170550304278 26.087065760640847 0.0 0 0 0
437 1 0.9223170550304296 26.087065760640847 4.518412331782038 0 0 0
438 1 1.7763568394002505e-15 27.39141904867289 2.259206165891019 0 0 0
439 2 2.7669511650912817 27.39141904867289 2.259206165891019 0 0 0
440 2 1.8446341100608556 28.695772336704934 0.0 0 0 0
441 1 4.611585275152137 28.695772336704934 0.0 0 0 0
442 3 0.9223170550304278 26.087065760640847 9.036824663564076 0 0 0
443 1 1.7763568394002505e-15 27.39141904867289 6.777618497673057 0 0 0
444 2 2.7669511650912817 27.391419048672887 6.777618497673057 0 0 0
445 3 1.8446341100608556 28.695772336704934 4.518412331782038 0 0 0
446 4 4.611585275152137 28.69577233670493 4.518412331782038 0 0 0
447 3 3.6892682201217095 30.000125624736977 2.259206165891019 0 0 0
448 3 6.456219385212989 30.000125624736974 2.259206165891019 0 0 0
449 4 0.0 27.39141904867289 11.296030829455095 0 0 0
450 2 2.7669511650912817 27.391419048672887 11.296030829455095 0 0 0
451 4 1.8446341100608556 28.695772336704934 9.036824663564076 0 0 0
452 3 4.611585275152137 28.695772336704934 9.036824663564076 0 0 0
453 3 3.6892682201217095 30.000125624736974 6.777618497673057 0 0 0
454 3 6.456219385212989 30.000125624736974 6.777618497673057 0 0 0
455 2 3.6892682201217095 30.000125624736974 11.296030829455095 0 0 0